# vtk DataFile Version 4.0
vtk output
ASCII
DATASET POLYDATA
POINTS 4724 float
28 -12 -28.0313 28 -12.0463 -28 28.1122 -12 -28 
27.8678 -12 -28 30 -10 -28.3394 30 -10.8267 -28 
30.4833 -10 -28 28 -10 -28.8225 26 -11.3241 -28 
26 -10 -28.7059 24 -10 -28.205 24 -10.3293 -28 
23.6262 -10 -28 30 -8 -28.2237 30.2953 -8 -28 
28 -8 -28.8461 26 -8 -28.9448 24 -8 -28.4516 
23.3515 -8 -28 30 -7.66486 -28 28 -6.40492 -28 
26.5522 -6 -28 26 -6 -28.1155 25.7006 -6 -28 
24 -7.0883 -28 26 -5.89315 -28 32 -14 -26.205 
32 -14.3738 -26 32.3124 -14 -26 30 -14 -26.6841 
30 -15.0477 -26 28 -14 -26.7926 28 -15.0512 -26 
26 -14 -26.4208 26 -14.5761 -26 25 -14 -26 
32 -12 -26.6418 32.7581 -12 -26 30 -12 -27.5362 
26 -12 -27.5792 24 -13.4239 -26 24 -12 -27 
22 -12 -26.3654 22 -12.4582 -26 21.34 -12 -26 
32 -10 -26.7581 32.6418 -10 -26 22 -10 -27.209 
20 -10.66 -26 20 -10 -26.3394 19.5167 -10 -26 
32 -8 -26.1049 32.0746 -8 -26 22 -8 -26.8267 
20.208 -8 -26 20 -8.36376 -26 32 -7.90564 -26 
30 -6.51437 -26 28 -6.17911 -26 26.2869 -6 -26 
25.9005 -6 -26 24 -6.5653 -26 22 -7.33684 -26 
26 -5.96874 -26 32 -18 -24.2835 32 -18.3702 -24 
32.4685 -18 -24 30 -18 -24.5997 30 -18.8267 -24 
28 -18 -24.2835 28 -18.3702 -24 27.332 -18 -24 
34 -16 -24.16 34 -16.2566 -24 34.1473 -16 -24 
32 -16 -25.209 30 -16 -25.4003 28 -16 -25.3159 
26 -17.2929 -24 26 -16 -25 24 -16 -24.4208 
24 -16.5506 -24 23.1496 -16 -24 34 -14 -24.7091 
34.5563 -14 -24 24 -14 -25.5792 22 -15.1151 -24 
22 -14 -24.7526 20.66 -14 -24 34 -12 -24.3123 
34.205 -12 -24 20 -12 -25.2474 20 -13.5418 -24 
18 -12 -24.2842 18 -12.4156 -24 17.5844 -12 -24 
34 -11.6016 -24 33.2942 -10 -24 18 -10 -24.8921 
16.9095 -10 -24 32.4516 -8 -24 20 -8 -25.8645 
18 -8 -24.1879 17.7795 -8 -24 32 -7.51308 -24 
30 -6.80493 -24 28 -6.82247 -24 26 -6.80493 -24 
26 -6 -25.9406 24 -6.91407 -24 22 -7 -24 
20 -7.11605 -24 18 -7.84718 -24 32 -20 -22.6235 
32 -20.6785 -22 32.9341 -20 -22 30 -20 -23 
30 -21 -22 28 -20 -22.5704 28 -20.5704 -22 
27 -20 -22 34 -18 -22.8207 34 -19 -22 
34.7066 -18 -22 26 -18 -23.3765 26 -19.4296 -22 
24 -18 -22.8921 24 -18.9634 -22 22 -18 -22.3654 
22 -18.4389 -22 21.4202 -18 -22 35.209 -16 -22 
22 -16 -23.4531 20 -16.7337 -22 20 -16 -22.498 
19.1772 -16 -22 35.0859 -14 -22 20 -14 -23.6346 
18 -15.1513 -22 18 -14 -22.9663 16.1711 -14 -22 
34.5997 -12 -22 16 -12 -22.9663 16 -13.8289 -22 
14.8931 -12 -22 34 -11.0477 -22 33.2939 -10 -22 
16 -10 -23.2939 14 -10.1628 -22 14 -10 -22.0774 
13.9226 -10 -22 32 -8.10887 -22 32 -8 -22.2912 
31.792 -8 -22 16 -8 -22.5873 14.7797 -8 -22 
14 -9.61779 -22 30 -7.40028 -22 28 -7.40028 -22 
26 -7.40028 -22 24 -7.40028 -22 22 -7.40028 -22 
20 -7.40028 -22 18 -7.44365 -22 16 -7.54841 -22 
34 -22 -20.2214 34 -22.2807 -20 34.2807 -22 -20 
32 -22 -20.8921 32 -22.9634 -20 30 -22 -21 
30 -23 -20 28 -22 -20.5704 28 -22.5704 -20 
27 -22 -20 34 -20 -21.2934 35.3525 -20 -20 
26 -20 -21.4296 26 -21.4296 -20 24 -20 -20.9634 
24 -20.8921 -20 22 -20 -20.2807 22 -20.2214 -20 
21.7056 -20 -20 36 -18 -20.3873 36 -18.668 -20 
36.2835 -18 -20 20 -18 -20.8575 20 -18.7066 -20 
19.1793 -18 -20 36 -16 -20.3738 36.205 -16 -20 
18 -16 -21 18 -16.8692 -20 17.184 -16 -20 
36 -15.6016 -20 35.2942 -14 -20 16 -14 -21.7853 
16 -14.8422 -20 15.2481 -14 -20 34.5563 -12 -20 
14 -12 -20.0731 14 -12.0463 -20 13.9687 -12 -20 
34 -11.2617 -20 32.7071 -10 -20 13.3133 -10 -20 
32 -9.37653 -20 30 -8.68415 -20 30 -8 -21.0477 
28 -8.59972 -20 28 -8 -21 26 -8.59972 -20 
26 -8 -21 24 -8.59972 -20 24 -8 -21 
22 -8.59972 -20 22 -8 -21 20 -8.59972 -20 
20 -8 -21 18 -8.33944 -20 18 -8 -20.7343 
17 -8 -20 14.3638 -8 -20 14 -8.18204 -20 
16 -7.66056 -20 36 -22 -18.1049 36 -22.0944 -18 
36.0746 -22 -18 34 -23.5548 -18 32 -23.8019 -18 
30 -23.7024 -18 28 -23.3522 -18 26 -22 -19.2439 
26 -22.7925 -18 24 -22 -18.4833 24 -22.3394 -18 
23.34 -22 -18 36 -20 -19.1834 36.7058 -20 -18 
22 -21.2474 -18 20.5231 -20 -18 36.9141 -18 -18 
20 -19.5455 -18 18.23 -18 -18 36.5997 -16 -18 
18 -17.7346 -18 16.8825 -16 -18 36 -15.0477 -18 
35.3159 -14 -18 16 -14.4426 -18 15.7158 -14 -18 
34.1473 -12 -18 14 -12 -19.9269 14.8931 -12 -18 
34 -11.84 -18 32 -10.4208 -18 32 -10 -18.8504 
31.3241 -10 -18 14 -10 -18.6777 14.8639 -10 -18 
30 -9.29415 -18 28 -9.08593 -18 26 -9.29415 -18 
24 -9.40028 -18 22 -9.40028 -18 20 -9.40028 -18 
18 -9.35816 -18 16 -9.35421 -18 16 -8 -19.5167 
36 -22 -17.0606 35.6362 -22 -16 34 -22.4389 -16 
32 -22 -16.393 33 -22 -16 30 -22 -16.6859 
28 -22 -16.4705 27 -22 -16 26 -22.3654 -16 
24 -22.5997 -16 22 -22 -16.1768 22 -22.0746 -16 
21.9056 -22 -16 36 -21.8446 -16 36.812 -20 -16 
32 -21.5167 -16 30 -21.1733 -16 28 -21.5611 -16 
20 -20 -16.1322 20 -20.0415 -16 19.9661 -20 -16 
36.884 -18 -16 18.6366 -18 -16 36.2835 -16 -16 
18 -16.7135 -16 17.6346 -16 -16 36 -15.6127 -16 
34.5933 -14 -16 16 -14 -17.6048 17.2419 -14 -16 
34 -13.3326 -16 34 -12 -17.7587 32.5217 -12 -16 
16 -12 -17.0337 17.6707 -12 -16 32 -11.5611 -16 
30 -10.0148 -16 30 -10 -16.0257 29.906 -10 -16 
26 -10 -16.8166 27.4467 -10 -16 26 -10.7071 -16 
24 -11.1733 -16 24 -10 -17.1733 22 -11.1733 -16 
22 -10 -17.1733 20 -11.1733 -16 20 -10 -17.1733 
18 -11.6876 -16 18 -10 -17.2419 16 -10 -17.4788 
28 -9.77629 -16 34 -22 -15.6346 26 -22 -15.5611 
24 -22 -14.9697 22 -22 -15.7755 36 -20 -14.6025 
34 -20 -14.4208 32 -20 -14.8921 30 -20 -15 
28 -20 -14.5704 26.9275 -20 -14 26 -20.513 -14 
24 -21.1671 -14 22 -21.0508 -14 20 -20 -15.9269 
21.1264 -20 -14 36 -18 -14.1355 35.792 -18 -14 
34 -19.2329 -14 32 -18.8624 -14 30 -18.8267 -14 
28 -19.3199 -14 20 -18.2978 -14 19.84 -18 -14 
36 -16 -15.5315 34.4685 -16 -14 18 -16 -15.5611 
19.8029 -16 -14 34 -15.6127 -14 34 -14 -15.4067 
32 -14.6759 -14 32 -14 -14.4208 31.087 -14 -14 
26 -14 -14.205 26.4653 -14 -14 26 -14.3483 -14 
24 -14.9523 -14 24 -14 -14.5997 22 -15 -14 
22 -14 -14.5997 20 -15.7145 -14 20 -14 -14.7058 
18 -14 -15.3582 32 -12 -15.6213 30 -13.0633 -14 
30 -12 -14.5653 28 -12.4314 -14 28 -12 -14.1986 
26 -12 -15 24 -12 -15.4003 22 -12 -15.4003 
20 -12 -15.4003 18 -12 -15.795 28 -10 -15.7317 
26 -20 -13.5283 24 -20 -13.209 22 -20 -13.4437 
34 -18 -13.4003 32 -18 -13.4003 30 -18 -13.4003 
28 -18 -13.0999 26 -18 -12.6177 24 -18 -12.8049 
22 -18 -13.0859 20 -18 -13.8527 34 -16 -13.7165 
32 -16 -13.2942 30 -16 -13.0859 28 -16 -13 
26 -16 -13.0999 24 -16 -13.3159 22 -16 -13.4003 
20 -16 -13.8579 30 -14 -13.5362 28 -14 -13.4003 
30 -28 -16.0313 30 -28.0463 -16 30.1322 -28 -16 
29.9005 -28 -16 34 -26 -16.3394 34 -26.5068 -16 
34.6207 -26 -16 32 -26 -16.7059 32 -27.3241 -16 
30 -26 -16.8225 28 -26.9367 -16 28 -26 -16.4638 
26.913 -26 -16 34 -24 -16.5997 35.2547 -24 -16 
32 -24 -16.9141 30 -24 -17 28 -24 -16.8225 
26 -24.9124 -16 26 -24 -16.3394 25.2179 -24 -16 
34 -22.7671 -16 32.9124 -22 -16 32 -22 -16.3394 
30 -22 -16.5997 28 -22 -16.2835 27.332 -22 -16 
26 -23.2341 -16 32 -21.5167 -16 30 -21.1733 -16 
28 -21.6298 -16 32 -30 -14.4208 32 -30.5506 -14 
33 -30 -14 30 -30 -14.7926 30 -30.924 -14 
28 -30 -14.3654 28 -30.4389 -14 27.4202 -30 -14 
34 -28 -15 34 -29.4239 -14 35.9796 -28 -14 
32 -28 -15.5792 28 -28 -15.4531 26 -28.7337 -14 
26 -28 -14.498 25.301 -28 -14 36 -26 -14.9818 
36 -27.972 -14 36.6672 -26 -14 26 -26 -15.5792 
24 -26.4685 -14 24 -26 -14.3702 23.7066 -26 -14 
36 -24 -15.3975 36.7887 -24 -14 24 -24 -15.2223 
23.2471 -24 -14 36 -22 -14.3702 36.2934 -22 -14 
34 -22 -15.5792 26 -22 -15.3525 24.0179 -22 -14 
24 -22.0245 -14 36 -21.5562 -14 34.3402 -20 -14 
34 -20 -14.2298 32 -20 -14.8533 30 -20 -15 
28 -20 -14.5704 27.1287 -20 -14 26 -20.7066 -14 
34 -19.7702 -14 32 -19.1467 -14 30 -19 -14 
28 -19.4296 -14 34 -32 -12.3654 34 -32.4389 -12 
34.5492 -32 -12 32 -32 -12.8921 32 -32.9634 -12 
30 -32 -13 30 -33 -12 28 -32 -12.5704 
28 -32.5704 -12 27.1287 -32 -12 36 -30 -12.3702 
36 -30.4685 -12 36.2934 -30 -12 34 -30 -13.5792 
26 -30 -13 26 -31.1425 -12 24.7337 -30 -12 
36 -28 -13.9803 36.884 -28 -12 24 -28 -12.8207 
24 -29.1287 -12 23.2934 -28 -12 37 -26 -12 
23.0918 -26 -12 36.9141 -24 -12 23.3328 -24 -12 
36.5563 -22 -12 24.1142 -22 -12 24 -22.188 -12 
36 -20.9492 -12 35.0508 -20 -12 26.3328 -20 -12 
26 -20.2511 -12 34 -19.3701 -12 32 -18.6478 -12 
30 -18.2976 -12 28 -18.7971 -12 34 -34 -10.4389 
34 -34.4211 -10 34.4582 -34 -10 32 -34 -11 
32 -35 -10 30 -34 -11 30 -35 -10 
28 -34 -10.6235 28 -34.6785 -10 26.7659 -34 -10 
36 -32 -10.4685 36 -32.3873 -10 36.2835 -32 -10 
26 -32 -11.2934 26 -33.5418 -10 24 -32 -10.3654 
24 -32.4582 -10 23.4508 -32 -10 36.9141 -30 -10 
24 -30 -11.4847 22.0147 -30 -10 36.9141 -28 -10 
22.2943 -28 -10 36.6672 -26 -10 23.5102 -26 -10 
36.1473 -24 -10 24 -24 -11.0182 25.2205 -24 -10 
24 -25.2884 -10 36 -23.7022 -10 36 -22 -11.1263 
34.6207 -22 -10 26 -22 -10.6102 27.2341 -22 -10 
26 -23.0633 -10 34 -21.4932 -10 34 -20 -11.2618 
32 -21.0477 -10 32 -20 -10.7867 30 -21 -10 
30 -20 -10.6859 28 -21.4329 -10 28 -20 -10.9782 
32 -36 -8.96341 32 -36.8921 -8 33.9762 -36 -8 
30 -36 -9 30 -37 -8 28 -36 -8.89211 
28 -36.9634 -8 26 -36 -8.36544 26 -36.4389 -8 
25.4202 -36 -8 34 -35.9836 -8 35.1844 -34 -8 
26 -34 -9.63456 24 -34.8575 -8 24 -34 -8.70659 
23.1023 -34 -8 36 -32.3738 -8 36.205 -32 -8 
22 -32 -8.63445 22 -32.7043 -8 21.5283 -32 -8 
36.5563 -30 -8 22 -30 -9.94103 21.6346 -30 -8 
36.1473 -28 -8 23.2663 -28 -8 22 -29.4202 -8 
36 -27.7022 -8 36 -26 -9.01818 34.6207 -26 -8 
28 -26 -8.33944 29 -26 -8 28 -26.4833 -8 
26 -26.8734 -8 26 -26 -8.68415 24 -27.4067 -8 
24 -26 -9.46553 36 -24 -9.84004 34 -25.4329 -8 
34 -24 -8.79105 32 -25 -8 32 -24 -8.59972 
30 -25.4003 -8 30 -24 -8.70585 28 -24 -9 
26 -24 -9.53615 34 -22 -9.66056 32 -22 -9.40028 
30 -22 -9.40028 28 -22 -9.66056 32 -38 -6.31235 
32 -38.2214 -6 32.2807 -38 -6 30 -38 -6.96341 
30 -38.8921 -6 28 -38 -7 28 -39 -6 
26 -38 -6.57038 26 -38.5704 -6 25.228 -38 -6 
34 -36 -7.85507 34 -36.1971 -6 34.1421 -36 -6 
[...]
POINT_DATA 4724
SCALARS scalars unsigned_short
LOOKUP_TABLE default
1 1 1 1 1 1 1 1 1 
1 1 1 1 1 1 1 1 1 
1 1 1 1 1 1 1 1 1 
1 1 1 1 1 1 1 1 1 
1 1 1 1 1 1 1 1 1 
1 1 1 1 1 1 1 1 1 
1 1 1 1 1 1 1 1 1 
1 1 1 1 1 1 1 1 1 
1 1 1 1 1 1 1 1 1 
1 1 1 1 1 1 1 1 1 
1 1 1 1 1 1 1 1 1 
1 1 1 1 1 1 1 1 1 
1 1 1 1 1 1 1 1 1 
1 1 1 1 1 1 1 1 1 
1 1 1 1 1 1 1 1 1 
1 1 1 1 1 1 1 1 1 
1 1 1 1 1 1 1 1 1 
1 1 1 1 1 1 1 1 1 
1 1 1 1 1 1 1 1 1 
1 1 1 1 1 1 1 1 1 
1 1 1 1 1 1 1 1 1 
1 1 1 1 1 1 1 1 1 
1 1 1 1 1 1 1 1 1 
1 1 1 1 1 1 1 1 1 
1 1 1 1 1 1 1 1 1 
1 1 1 1 1 1 1 1 1 
1 1 1 1 1 1 1 1 1 
1 1 1 1 1 1 1 1 1 
1 1 1 1 1 1 1 1 1 
1 1 1 1 1 1 1 1 1 
1 1 1 1 1 1 1 1 1 
1 1 1 1 1 1 1 1 1 
1 1 1 1 1 1 1 1 1 
1 1 1 1 1 1 1 1 1 
1 1 1 1 1 1 1 1 1 
1 1 1 1 1 1 1 1 1 
1 1 1 1 1 1 1 1 1 
1 1 1 1 1 1 1 1 1 
1 1 1 1 1 1 1 1 1 
1 1 1 1 1 1 1 1 1 
1 1 1 1 1 1 1 1 1 
1 1 1 1 1 1 1 1 1 
1 1 1 1 1 1 1 1 1 
1 1 1 1 1 1 1 1 1 
2 2 2 2 2 2 2 2 2 
2 2 2 2 2 2 2 2 2 
2 2 2 2 2 2 2 2 2 
2 2 2 2 2 2 2 2 2 
2 2 2 2 2 2 2 2 2 
2 2 2 2 2 2 2 2 2 
2 2 2 2 2 2 2 2 2 
2 2 2 2 2 2 2 2 2 
2 2 2 2 2 2 2 2 2 
2 2 2 2 2 2 2 2 2 
2 2 2 2 2 2 2 2 2 
2 2 2 2 2 2 2 2 2 
2 2 2 2 2 2 2 2 2 
2 2 2 2 2 2 2 2 2 
2 2 2 2 2 2 2 2 2 
2 2 2 2 2 2 2 2 2 
2 2 2 2 2 2 2 2 2 
2 2 2 2 2 2 2 2 2 
2 2 2 2 2 2 2 2 2 
2 2 2 2 2 2 2 2 2 
2 2 2 2 2 2 2 2 2 
2 2 2 2 2 2 2 2 2 
2 2 2 2 2 2 2 2 2 
2 2 2 2 2 2 2 2 2 
2 2 2 2 2 2 2 2 2 
2 2 2 2 2 2 2 2 2 
2 2 2 2 2 2 2 2 2 
2 2 2 2 2 2 2 2 2 
2 2 2 2 2 2 2 2 2 
2 2 2 2 2 2 2 2 2 
2 2 2 2 2 2 2 2 2 
2 2 2 2 2 2 2 2 2 
2 2 2 2 2 2 2 2 2 
2 2 2 2 2 2 2 2 2 
2 2 2 2 2 2 2 2 2 
2 2 2 2 2 2 2 2 2 
2 2 2 2 2 2 2 2 2 
2 2 2 2 2 2 2 2 2 
2 2 2 2 2 2 2 2 2 
2 2 2 2 2 2 2 2 2 
2 2 2 2 2 2 2 2 2 
2 2 2 2 2 2 2 2 2 
2 2 2 2 2 2 2 2 2 
2 2 2 2 2 2 2 2 2 
2 2 2 2 2 2 3 3 3 
3 3 3 3 3 3 3 3 3 
3 3 3 3 3 3 3 3 3 
3 3 3 3 3 3 3 3 3 
3 3 3 3 3 3 3 3 3 
3 3 3 3 3 3 3 3 3 
3 3 3 3 3 3 3 3 3 
3 3 3 3 3 3 3 3 3 
3 3 3 3 3 3 3 3 3 
3 3 3 3 3 3 3 3 3 
3 3 3 3 3 3 3 3 3 
3 3 3 3 3 3 3 3 3 
3 3 3 3 3 3 3 3 3 
3 3 3 3 3 3 3 3 3 
3 3 3 3 3 3 3 3 3 
3 3 3 3 3 3 3 3 3 
3 3 3 3 3 3 3 3 3 
3 3 3 3 3 3 3 3 3 
3 3 3 3 3 3 3 3 3 
3 3 3 3 3 3 3 3 3 
3 3 3 3 3 3 3 3 3 
3 3 3 3 3 3 3 3 3 
3 3 3 3 3 3 3 3 3 
3 3 3 3 3 3 3 3 3 
3 3 3 3 3 3 4 4 4 
4 4 4 4 4 4 4 4 4 
4 4 4 4 4 4 4 4 4 
4 4 4 4 4 4 4 4 4 
4 4 4 4 4 4 4 4 4 
4 4 4 4 4 4 4 4 4 
4 4 4 4 4 4 4 4 4 
4 4 4 4 4 4 4 4 4 
4 4 4 4 4 4 4 4 4 
4 4 4 4 4 4 4 4 4 
4 4 4 4 4 4 4 4 4 
4 4 4 4 4 4 4 4 4 
4 4 4 4 4 4 4 4 4 
4 4 4 4 4 4 4 4 4 
4 4 4 4 4 4 4 4 4 
4 4 4 4 4 4 4 4 4 
4 4 4 4 4 4 4 4 4 
4 4 4 4 4 4 4 4 4 
4 4 4 4 4 4 4 4 4 
4 4 4 4 4 4 4 4 4 
4 4 4 4 4 4 4 4 4 
4 4 4 4 4 4 4 4 4 
4 4 4 4 4 4 4 4 4 
4 4 4 4 4 4 4 4 4 
4 4 4 4 4 4 4 4 4 
4 4 4 4 4 4 4 4 4 
4 4 4 4 4 4 4 4 4 
4 4 4 4 4 4 4 4 4 
5 5 5 5 5 5 5 5 5 
5 5 5 5 5 5 5 5 5 
5 5 5 5 5 5 5 5 5 
5 5 5 5 5 5 5 5 5 
5 5 5 5 5 5 5 5 5 
5 5 5 5 5 5 5 5 5 
5 5 5 5 5 5 5 5 5 
5 5 5 5 5 5 5 5 5 
5 5 5 5 5 5 5 5 5 
5 5 5 5 5 5 5 5 5 
5 5 5 5 5 5 5 5 5 
5 5 5 5 5 5 5 5 5 
5 5 5 5 5 5 5 5 5 
5 5 5 5 5 5 5 5 5 
5 5 5 5 5 5 5 5 5 
5 5 5 5 5 5 5 5 5 
5 5 5 5 5 5 5 5 5 
5 5 5 5 5 5 5 5 5 
5 5 5 5 5 5 5 5 5 
5 5 5 5 5 5 5 5 5 
5 5 5 5 5 5 5 5 5 
5 5 5 5 5 5 5 5 5 
5 5 5 5 5 5 5 5 5 
5 5 5 5 5 5 5 5 5 
5 5 5 5 5 5 5 5 5 
5 5 5 5 5 5 5 5 5 
5 5 5 5 5 5 5 5 5 
5 5 5 5 5 5 5 5 5 
5 5 6 6 6 6 6 6 6 
6 6 6 6 6 6 6 6 6 
6 6 6 6 6 6 6 6 6 
6 6 6 6 6 6 6 6 6 
6 6 6 6 6 6 6 6 6 
6 6 6 6 6 6 6 6 6 
6 6 6 6 6 6 6 6 6 
6 6 6 6 6 6 6 6 6 
6 6 6 6 6 6 6 6 6 
6 6 6 6 6 6 6 6 6 
6 6 6 6 6 6 6 6 6 
6 6 6 6 6 6 6 6 6 
6 6 6 6 6 6 6 6 6 
6 6 6 6 6 6 6 6 6 
6 6 6 6 6 6 6 6 6 
6 6 6 6 6 6 6 6 6 
6 6 6 6 6 6 6 6 6 
6 6 6 6 6 6 6 6 6 
6 6 6 6 6 6 6 6 6 
6 6 6 6 6 6 6 6 6 
6 6 6 6 6 6 6 6 6 
6 6 6 6 6 6 6 6 6 
6 6 6 6 6 6 6 6 6 
6 6 6 6 6 6 6 6 6 
6 6 6 6 6 6 6 6 6 
6 6 6 6 6 6 6 6 6 
6 6 6 6 6 6 6 6 6 
6 7 7 7 7 7 7 7 7 
7 7 7 7 7 7 7 7 7 
7 7 7 7 7 7 7 7 7 
7 7 7 7 7 7 7 7 7 
7 7 7 7 7 7 7 7 7 
7 7 7 7 7 7 7 7 7 
7 7 7 7 7 7 7 7 7 
7 7 7 7 7 7 7 7 7 
7 7 7 7 7 7 7 7 7 
7 7 7 7 7 7 7 7 7 
7 7 7 7 7 7 7 7 7 
7 7 7 7 7 7 7 7 7 
7 7 7 7 7 7 7 7 7 
7 7 7 7 7 7 7 7 7 
7 7 7 7 7 7 7 7 7 
7 7 7 7 7 7 7 7 7 
7 7 7 7 7 7 7 7 7 
7 7 7 7 7 7 7 7 7 
7 7 7 7 7 7 7 7 7 
7 7 7 7 7 7 7 7 7 
7 7 7 7 7 7 7 7 7 
7 7 7 7 7 7 7 7 7 
7 7 7 7 7 7 7 7 7 
7 7 7 7 7 7 7 7 7 
7 7 7 7 7 7 7 7 7 
7 7 7 7 7 7 7 7 7 
7 7 7 7 7 7 7 7 7 
7 7 7 7 7 7 7 7 7 
7 7 7 7 7 7 7 7 7 
7 7 7 7 7 7 7 7 7 
7 7 7 7 7 7 7 7 7 
7 7 7 7 7 7 7 7 7 
7 7 7 7 7 7 7 7 7 
7 7 7 7 7 7 7 7 7 
7 7 7 7 7 7 7 7 7 
7 7 7 7 7 7 7 7 7 
7 7 7 7 7 7 7 7 7 
7 7 7 7 7 7 7 7 7 
7 7 7 7 7 7 7 7 7 
7 7 7 7 7 7 7 7 7 
7 7 7 7 7 7 7 7 7 
7 7 7 7 7 7 7 7 7 
7 7 7 7 7 7 7 7 7 
7 7 7 7 7 7 7 7 7 
7 7 7 7 7 7 7 7 7 
7 7 7 7 7 7 7 7 7 
7 7 7 7 7 7 7 7 7 
7 7 7 7 7 7 7 7 7 
7 7 7 7 7 7 7 7 7 
7 7 7 7 7 7 7 7 7 
7 7 7 7 7 7 7 7 7 
7 7 7 7 7 7 7 7 7 
7 7 7 7 7 7 7 7 7 
7 7 7 7 7 7 7 7 7 
7 7 7 7 7 7 7 7 7 
7 7 7 7 7 7 7 7 7 
7 7 7 7 7 7 7 8 8 
8 8 8 8 8 8 8 8 8 
8 8 8 8 8 8 8 8 8 
8 8 8 8 8 8 8 8 8 
8 8 8 8 8 8 8 8 8 
8 8 8 8 8 8 8 8 8 
8 8 8 8 8 8 8 8 8 
8 8 8 8 8 8 8 8 8 
8 8 8 8 8 8 8 8 8 
8 8 8 8 8 8 8 8 8 
8 8 8 8 8 8 8 8 8 
8 8 8 8 8 8 8 8 8 
8 8 8 8 8 8 8 8 8 
8 8 8 8 8 8 8 8 8 
8 8 8 8 8 8 8 8 8 
8 8 8 8 8 8 8 8 8 
8 8 8 8 8 8 8 8 8 
8 8 8 8 8 8 8 8 8 
8 8 8 8 8 8 8 8 8 
8 8 8 8 8 8 8 8 8 
8 8 8 8 8 8 8 8 8 
8 8 8 8 8 8 8 8 8 
8 8 8 8 8 8 8 8 8 
8 8 8 8 8 8 8 8 8 
8 8 8 8 8 8 8 8 8 
8 8 8 8 8 8 8 8 8 
8 8 8 8 8 8 8 8 8 
8 8 8 8 8 8 8 8 8 
8 8 8 8 8 8 8 8 8 
8 8 8 8 8 8 8 8 8 
8 8 8 8 8 8 8 8 8 
8 8 8 8 8 8 8 8 8 
8 8 8 8 8 8 8 8 8 
8 8 8 8 8 8 8 8 8 
8 8 8 8 8 8 8 8 8 
8 8 8 8 8 8 8 8 8 
8 8 8 8 8 8 8 8 8 
8 8 8 8 8 8 8 8 8 
8 8 8 8 8 8 8 8 8 
8 8 8 8 8 8 8 8 8 
8 8 8 8 8 8 8 9 9 
9 9 9 9 9 9 9 9 9 
9 9 9 9 9 9 9 9 9 
9 9 9 9 9 9 9 9 9 
9 9 9 9 9 9 9 9 9 
9 9 9 9 9 9 9 9 9 
9 9 9 9 9 9 9 9 9 
9 9 9 9 9 9 9 9 9 
9 9 9 9 9 9 9 9 9 
9 9 9 9 9 9 9 9 9 
9 9 9 9 9 9 9 9 9 
9 9 9 9 9 9 9 9 9 
9 9 9 9 9 9 9 9 9 
9 9 9 9 9 9 9 9 9 
9 9 9 9 9 9 9 9 9 
9 9 9 9 9 9 9 9 9 
9 9 9 9 9 9 9 9 9 
9 9 9 9 9 9 9 9 9 
9 9 9 9 9 9 9 9 9 
9 9 9 9 10 10 10 10 10 
10 10 10 10 10 10 10 10 10 
10 10 10 10 10 10 10 10 10 
10 10 10 10 10 10 10 10 10 
10 10 10 10 10 10 10 10 10 
10 10 10 10 10 10 10 10 10 
10 10 10 10 10 10 10 10 10 
10 10 10 10 10 10 10 10 10 
10 10 10 10 10 10 10 10 10 
10 10 10 10 10 10 10 10 10 
10 10 10 10 10 10 10 10 10 
10 10 10 10 10 10 10 10 10 
10 10 10 10 10 10 10 10 10 
10 10 10 10 10 10 10 10 10 
10 10 10 10 10 10 10 10 10 
10 10 10 10 10 11 11 11 11 
11 11 11 11 11 11 11 11 11 
11 11 11 11 11 11 11 11 11 
11 11 11 11 11 11 11 11 11 
11 11 11 11 11 11 11 11 11 
11 11 11 11 11 11 11 11 11 
11 11 11 11 11 11 11 11 11 
11 11 11 11 11 11 11 11 11 
11 11 11 11 11 11 11 11 11 
11 11 11 11 11 11 11 11 11 
11 11 11 11 11 11 11 11 11 
11 11 11 11 11 11 11 11 11 
11 11 11 11 11 11 11 11 11 
11 11 11 11 11 11 11 11 11 
11 11 11 11 11 11 11 11 11 
11 11 11 11 12 12 12 12 12 
12 12 12 12 12 12 12 12 12 
12 12 12 12 12 12 12 12 12 
12 12 12 12 12 12 12 12 12 
12 12 12 12 12 12 12 12 12 
12 12 12 12 12 12 12 12 12 
12 12 12 12 12 12 12 12 12 
12 12 12 12 12 12 12 12 12 
12 12 12 12 12 12 12 12 12 
12 12 12 12 12 12 12 12 12 
12 12 12 12 12 12 12 12 12 
12 12 12 12 12 12 12 12 12 
12 12 12 12 12 12 12 12 12 
12 12 12 12 12 12 12 12 12 
12 12 12 12 12 12 12 12 12 
12 12 12 12 12 12 12 12 12 
12 12 12 12 12 12 12 12 12 
12 12 12 12 12 12 12 12 12 
12 12 12 12 12 12 13 13 13 
13 13 13 13 13 13 13 13 13 
13 13 13 13 13 13 13 13 13 
13 13 13 13 13 13 13 13 13 
13 13 13 13 13 13 13 13 13 
13 13 13 13 13 13 13 13 13 
13 13 13 13 13 13 13 13 13 
13 13 13 13 13 13 13 13 13 
13 13 13 13 13 13 13 13 13 
13 13 13 13 13 13 13 13 13 
13 13 13 13 13 13 13 13 13 
13 13 13 13 13 13 13 13 13 
13 13 13 13 13 13 13 13 13 
13 13 13 13 13 13 13 13 13 
13 13 13 13 13 13 13 13 13 
13 13 13 13 13 13 13 13 13 
13 13 13 13 13 13 13 13 13 
13 13 13 13 13 13 13 13 13 
13 13 13 13 13 13 13 13 13 
13 13 13 13 13 13 13 13 13 
13 13 13 13 13 13 13 13 13 
13 13 13 13 13 13 13 13 13 
13 13 13 13 13 13 13 13 13 
13 13 13 13 13 13 13 13 13 
13 13 13 13 13 13 13 13 13 
13 13 13 13 13 13 13 13 13 
13 13 13 13 13 13 13 13 13 
13 13 13 13 13 13 13 13 13 
13 13 13 13 13 13 13 13 13 
13 13 13 13 13 13 13 13 13 
13 13 13 13 13 13 13 13 13 
13 13 13 13 13 13 13 13 13 
13 13 13 13 13 13 13 13 13 
13 13 13 13 13 13 13 13 13 
13 13 13 13 13 13 13 13 13 
13 13 13 13 13 13 13 13 13 
13 13 13 13 13 13 13 13 13 
13 13 13 13 13 13 13 13 13 
13 13 13 13 13 13 13 13 13 
13 13 13 13 13 13 13 13 13 
13 13 13 13 13 13 13 13 13 
13 13 13 13 13 13 13 13 13 
13 13 13 13 13 13 13 13 13 
13 13 13 13 13 13 13 13 13 
13 13 13 13 13 13 13 13 13 
13 13 13 13 13 13 13 13 13 
13 13 13 13 13 13 13 13 13 
13 13 13 13 13 13 13 13 13 
13 13 13 13 13 13 13 13 13 
13 13 13 13 13 13 13 13 13 
14 14 14 14 14 14 14 14 14 
14 14 14 14 14 14 14 14 14 
14 14 14 14 14 14 14 14 14 
14 14 14 14 14 14 14 14 14 
14 14 14 14 14 14 14 14 14 
14 14 14 14 14 14 14 14 14 
14 14 14 14 14 14 14 14 14 
14 14 14 14 14 14 14 14 14 
14 14 14 14 14 14 14 14 14 
14 14 14 14 14 14 14 14 14 
14 14 14 14 14 14 14 14 14 
14 14 14 14 14 14 14 14 14 
14 14 14 14 14 14 14 14 14 
14 14 14 14 14 14 14 14 14 
14 14 14 14 14 14 14 14 14 
14 14 14 14 14 14 14 14 14 
14 14 14 14 14 14 14 14 14 
14 14 14 14 14 14 14 14 14 
14 14 14 14 14 14 14 14 14 
14 14 14 14 14 14 14 14 14 
14 14 14 14 14 14 14 14 14 
14 14 14 14 14 14 14 14 14 
14 14 14 14 14 14 14 14 14 
14 14 14 14 14 14 14 14 14 
14 14 14 14 14 14 14 14 14 
14 14 14 14 14 14 14 14 14 
14 14 14 14 14 14 14 14 14 
14 14 14 14 14 14 14 14 14 
14 14 14 14 14 14 14 14 14 
14 14 14 14 14 14 14 14 14 
14 14 14 14 14 14 14 14 14 
14 14 14 14 14 14 14 14 14 
14 14 14 14 14 14 14 14 14 
14 14 14 14 14 14 14 14 14 
14 14 14 14 14 14 14 14 14 
14 14 14 14 14 14 14 14 14 
14 14 14 14 14 14 14 14 14 
14 14 14 14 14 14 14 14 14 
14 14 14 14 14 14 14 14 14 
14 14 14 14 14 14 14 14 14 
14 14 14 14 14 14 14 14 14 
14 14 14 14 14 14 14 14 14 
14 14 14 14 14 14 14 14 14 
14 14 14 14 14 14 14 14 14 
14 14 14 14 14 14 14 14 14 
14 14 14 14 14 14 14 14 14 
14 14 14 14 14 14 14 14 14 
14 14 14 14 14 14 14 14 14 
14 14 14 14 14 14 14 14 14 
14 14 14 14 14 14 14 14 14 
14 14 14 14 14 14 14 14 14 
14 14 14 14 14 14 14 14 14 
14 14 14 14 14 14 14 14 14 
14 14 14 14 14 14 14 14 14 
14 14 14 14 14 14 14 14 14 
14 14 14 14 14 14 14 14 14 
15 15 15 15 15 15 15 15 15 
15 15 15 15 15 15 15 15 15 
15 15 15 15 15 15 15 15 15 
15 15 15 15 15 15 15 15 15 
15 15 15 15 15 15 15 15 15 
15 15 15 15 15 15 15 15 15 
15 15 15 15 15 15 15 15 15 
15 15 15 15 15 15 15 15 15 
15 15 15 15 15 15 15 15 15 
15 15 15 15 15 15 15 15 15 
15 15 15 15 15 15 15 15 15 
15 15 15 15 15 15 15 15 15 
15 15 15 15 15 15 15 15 15 
15 15 15 15 15 15 15 15 15 
15 15 15 15 15 15 15 15 15 
15 15 15 15 15 15 15 15 15 
15 15 15 15 15 15 15 15 15 
15 15 15 15 15 15 15 15 15 
15 15 15 15 15 15 15 15 15 
15 15 15 15 15 15 15 15 15 
15 15 15 15 15 15 15 15 15 
15 15 15 15 15 15 15 15 15 
15 15 15 15 15 15 15 15 15 
15 15 15 15 15 15 15 15 15 
15 15 15 15 15 15 15 15 15 
15 15 15 15 15 15 15 15 15 
15 15 15 15 15 15 15 15 15 
15 15 15 15 15 15 15 15 15 
15 15 15 15 15 15 15 15 15 
15 15 15 15 15 15 15 15 15 
15 15 15 15 15 15 15 15 15 
15 15 15 15 15 15 15 15 15 
15 15 15 15 15 15 15 15 15 
15 15 15 15 15 15 15 15 15 
15 15 15 15 15 15 15 15 15 
15 15 15 15 15 15 15 15 15 
15 15 15 15 15 15 16 16 16 
16 16 16 16 16 16 16 16 16 
16 16 16 16 16 16 16 16 16 
16 16 16 16 16 16 16 16 16 
16 16 16 16 16 16 16 16 16 
16 16 16 16 16 16 16 16 16 
16 16 16 16 16 16 16 16 16 
16 16 16 16 16 16 16 16 16 
16 16 16 16 16 16 16 16 16 
16 16 16 16 16 16 16 16 16 
16 16 16 16 16 16 16 16 16 
16 16 16 16 16 16 16 16 16 
16 16 16 16 16 16 16 16 16 
16 16 16 16 16 16 16 16 16 
16 16 16 16 16 16 16 16 16 
16 16 16 16 16 16 16 16 16 
16 16 16 16 16 16 16 16 16 
16 16 16 16 16 16 16 16 16 
16 16 16 16 16 16 16 16 16 
16 16 16 16 16 16 16 16 16 
16 16 16 16 16 16 16 16 16 
16 16 16 16 16 16 16 16 16 
16 16 16 16 16 16 16 16 16 
16 16 16 16 16 16 16 16 16 
16 16 16 16 16 16 16 16 
NORMALS normals float
-0.018307 0.510984 0.859395 -0.0170837 0.513901 0.85768 -0.035927 0.507866 0.860687 
-0.000965937 0.51526 0.857033 -0.457356 0.160307 0.874715 -0.422174 0.265907 0.866639 
-0.521501 0.138285 0.841971 -0.0974905 0.208039 0.97325 0.224033 0.487474 0.843907 
0.165259 0.331626 0.928824 0.380654 0.333457 0.862502 0.372992 0.373092 0.849517 
0.403741 0.307029 0.861816 -0.525452 -0.328887 0.784687 -0.563721 -0.332273 0.756184 
-0.208372 -0.243367 0.947288 0.111825 -0.120374 0.98641 0.516255 -0.163506 0.840682 
0.575425 -0.20764 0.791057 -0.544172 -0.401168 0.736845 -0.336305 -0.757981 0.558895 
-0.0336903 -0.874256 0.484296 0.0873902 -0.853066 0.514433 0.161577 -0.863491 0.477783 
0.596718 -0.452829 0.662476 0.0870656 -0.877025 0.472489 -0.403914 0.345105 0.847205 
-0.378789 0.370156 0.848235 -0.445417 0.32108 0.83577 -0.144124 0.515616 0.844611 
-0.0847552 0.530093 0.843693 0.0609293 0.595499 0.801042 0.0781522 0.588944 0.804387 
0.261539 0.558487 0.787204 0.249431 0.570253 0.782685 0.303757 0.55753 0.772588 
-0.585752 0.130621 0.799895 -0.682379 0.0409598 0.72985 -0.334395 0.397856 0.854336 
0.240102 0.534871 0.810101 0.324788 0.554175 0.766422 0.282745 0.552458 0.784121 
0.371165 0.531066 0.761712 0.372976 0.557773 0.741471 0.399771 0.533964 0.745027 
-0.750027 -0.0743909 0.657211 -0.823958 -0.155301 0.544953 0.455997 0.126347 0.880967 
0.519693 0.263015 0.812861 0.529111 0.135428 0.837676 0.561416 0.126726 0.817773 
-0.770354 -0.481671 0.41779 -0.775544 -0.486941 0.40177 0.498225 -0.530861 0.685535 
0.482865 -0.53168 0.695815 0.519797 -0.395206 0.757379 -0.766842 -0.502999 0.398681 
-0.377772 -0.919327 0.110115 -0.140865 -0.975255 -0.170396 0.0656843 -0.963164 -0.260768 
0.112068 -0.957492 -0.2658 0.379543 -0.923877 -0.0489751 0.391782 -0.795975 0.461445 
0.098681 -0.957606 -0.270654 -0.322705 0.540938 0.77669 -0.325623 0.566581 0.756938 
-0.3897 0.542606 0.744119 -0 0.528153 0.849149 -0 0.605281 0.796012 
0.254207 0.564608 0.785237 0.262377 0.587342 0.765629 0.277501 0.594271 0.754874 
-0.669756 0.339885 0.660231 -0.668926 0.359559 0.650581 -0.692303 0.332435 0.640471 
-0.271551 0.447543 0.852036 -0.0298372 0.501444 0.864676 0.100852 0.555309 0.825507 
0.277718 0.62446 0.730015 0.21592 0.595613 0.773708 0.330444 0.55395 0.764164 
0.311781 0.576082 0.755594 0.367536 0.530501 0.763863 -0.768598 0.0514244 0.637662 
-0.855516 0.00749679 0.517721 0.343162 0.543491 0.766066 0.416486 0.511613 0.751526 
0.400642 0.561705 0.72386 0.387777 0.560731 0.73158 -0.849645 -0.293437 0.438177 
-0.862299 -0.319072 0.393235 0.427466 0.530983 0.731663 0.374804 0.570891 0.730483 
0.475671 0.406606 0.780005 0.446191 0.441669 0.778358 0.495326 0.37862 0.781856 
-0.867093 -0.344964 0.359374 -0.892415 -0.418053 0.169785 0.652263 0.0167858 0.757807 
0.627499 -0.0229192 0.77828 -0.757401 -0.65247 -0.0250279 0.486565 -0.543571 0.683948 
0.574826 -0.632357 0.519326 0.565728 -0.632442 0.529121 -0.661204 -0.748333 -0.0529853 
-0.169459 -0.953139 -0.250619 -0 -0.942998 -0.3328 0.0294534 -0.928437 -0.37032 
0.0971924 -0.956579 -0.27479 0.0635726 -0.969892 -0.235093 0.0665101 -0.997372 -0.0287418 
0.223923 -0.965212 0.134999 0.550762 -0.679248 0.48506 -0.316259 0.637549 0.702504 
-0.283834 0.641133 0.713013 -0.431938 0.574721 0.695072 0.0077575 0.69067 0.723129 
0.0241471 0.706901 0.706901 0.294214 0.668881 0.682669 0.29151 0.676396 0.676396 
0.310876 0.67207 0.67207 -0.628381 0.458979 0.628073 -0.60179 0.466175 0.648483 
-0.692647 0.379278 0.613505 0.285231 0.646654 0.707448 0.294574 0.673592 0.677864 
0.21561 0.643095 0.734807 0.184817 0.677666 0.711766 0.361441 0.573611 0.735072 
0.353571 0.606954 0.711754 0.416349 0.581137 0.699238 -0.876576 0.0768531 0.475087 
0.409799 0.482296 0.774245 0.487965 0.52913 0.694199 0.451008 0.502382 0.737702 
0.46804 0.564814 0.67965 -0.96072 -0.177918 0.212983 0.364886 0.560826 0.743191 
0.431925 0.630483 0.644928 0.345539 0.584525 0.734121 0.576221 0.596215 0.559015 
-0.891626 -0.444493 0.086192 0.611125 0.284378 0.738685 0.599467 0.573883 0.557941 
0.708009 0.384358 0.592446 -0.852734 -0.521736 0.0252113 -0.8117 -0.572703 -0.114691 
0.5891 -0.0558126 0.80613 0.771914 0.147394 0.618405 0.764068 0.121361 0.633618 
0.776503 0.122399 0.618111 -0.567217 -0.725175 -0.390366 -0.584361 -0.732751 -0.34871 
-0.519158 -0.749574 -0.410627 0.365472 -0.746681 0.555786 0.525361 -0.694557 0.491515 
0.778956 0.0107179 0.626988 -0.144458 -0.874742 -0.462557 -0 -0.89052 -0.454944 
-0 -0.888818 -0.45826 -0 -0.899651 -0.43661 -0 -0.908578 -0.417715 
0.0122115 -0.924522 -0.380932 0.0449452 -0.990025 -0.133528 0.228926 -0.900938 0.368651 
-0.471338 0.543953 0.69423 -0.465292 0.572825 0.674815 -0.505976 0.530038 0.680476 
-0.176203 0.705669 0.686282 -0.138319 0.790034 0.597255 0.0646601 0.757694 0.649398 
0.0900264 0.827681 0.553931 0.315759 0.73266 0.602914 0.329507 0.76456 0.553962 
0.352965 0.726273 0.589867 -0.564185 0.46603 0.681551 -0.689516 0.361262 0.62774 
0.296285 0.677503 0.673205 0.332192 0.703732 0.62802 0.201205 0.709431 0.675443 
0.247146 0.732538 0.634277 0.421069 0.733155 0.534027 0.432931 0.741074 0.513206 
0.457707 0.73507 0.500177 -0.814397 0.191197 0.547906 -0.79467 0.233964 0.560143 
-0.842276 0.168194 0.512135 0.561236 0.623709 0.544061 0.578179 0.680518 0.450116 
0.60153 0.657694 0.453432 -0.895375 -0.213623 0.390728 -0.896295 -0.257004 0.361391 
0.563467 0.647284 0.51335 0.642398 0.645502 0.4131 0.673001 0.665604 0.322554 
-0.900355 -0.296494 0.318515 -0.908216 -0.412317 0.0716821 0.616714 0.607772 0.500277 
0.728232 0.675463 0.115878 0.768696 0.637322 0.0541073 -0.838064 -0.53564 -0.10363 
0.879613 0.475356 0.0178278 0.878656 0.477456 -0 0.880721 0.473636 -0 
-0.775551 -0.612751 -0.151845 -0.601285 -0.723954 -0.338151 0.994293 -0.00599173 -0.106519 
-0.50311 -0.746524 -0.435412 -0.18058 -0.861623 -0.474339 -0.154104 -0.850929 -0.502167 
-0.022993 -0.899413 -0.436495 -0.00786214 -0.876589 -0.481176 -0 -0.879483 -0.475931 
-0 -0.868717 -0.495308 -0 -0.870005 -0.493043 -0 -0.869335 -0.494224 
-0 -0.870005 -0.493043 -0 -0.872677 -0.488297 -0.0654317 -0.868141 -0.491987 
-0.0298568 -0.882821 -0.46876 -0.217392 -0.862648 -0.456704 -0.142309 -0.919753 -0.365791 
-0.156107 -0.888278 -0.431964 0.483259 -0.810974 -0.329819 0.653621 -0.698837 -0.290527 
-0.0715702 -0.92456 -0.374256 -0.782878 0.5413 0.306752 -0.780765 0.55697 0.283178 
-0.790335 0.541163 0.287251 -0.366598 0.930331 0.00948144 -0.0450519 0.984819 -0.167638 
0.118988 0.96263 -0.243282 0.266775 0.951103 -0.155676 0.320662 0.805983 0.497562 
0.26823 0.945915 0.182479 0.330512 0.829447 0.450311 0.339184 0.860507 0.380107 
0.40362 0.822757 0.400202 -0.796491 0.313885 0.516795 -0.923525 0.220022 0.314153 
0.546933 0.745417 0.381074 0.62589 0.72489 0.287744 -0.986837 -0.0296142 0.158981 
0.63823 0.727908 0.250623 0.736945 0.671315 0.0790509 -0.915664 -0.401471 0.0195022 
0.757728 0.65082 0.0477704 0.839208 0.531766 -0.113819 -0.866116 -0.498903 -0.0306471 
-0.826757 -0.545006 -0.139434 0.818184 0.450388 -0.357387 0.80733 0.43146 -0.402567 
-0.704523 -0.627702 -0.331117 0.8813 0.47222 -0.017862 0.750687 0.204658 -0.628159 
-0.688357 -0.641769 -0.338079 -0.515286 -0.76059 -0.394948 -0.526058 -0.755277 -0.390921 
-0.463856 -0.804617 -0.370713 0.808114 -0.115681 -0.577554 0.490296 -0.322616 -0.809647 
-0.311223 -0.893859 -0.322732 1.73132e-08 -0.949986 -0.312291 0.0932541 -0.883651 -0.458764 