# vtk DataFile Version 4.0
vtk output
ASCII
DATASET POLYDATA
POINTS 4724 float
-26 -12 -28.0313 -26 -12.0463 -28 -25.8678 -12 -28 
-26.1122 -12 -28 -22 -10 -28.205 -22 -10.3293 -28 
-21.6262 -10 -28 -24 -10 -28.7059 -24 -11.3241 -28 
-26 -10 -28.8225 -28 -10.8267 -28 -28 -10 -28.3394 
-28.4833 -10 -28 -22 -8 -28.4516 -21.3515 -8 -28 
-24 -8 -28.9448 -26 -8 -28.8461 -28 -8 -28.2237 
-28.2953 -8 -28 -22 -7.0883 -28 -23.7006 -6 -28 
-24 -6 -28.1155 -24.5522 -6 -28 -26 -6.40492 -28 
-28 -7.66486 -28 -24 -5.89315 -28 -24 -14 -26.4208 
-24 -14.5761 -26 -23 -14 -26 -26 -14 -26.7926 
-26 -15.0512 -26 -28 -14 -26.6841 -28 -15.0477 -26 
-30 -14 -26.205 -30 -14.3738 -26 -30.3123 -14 -26 
-20 -12 -26.3654 -20 -12.4582 -26 -19.34 -12 -26 
-22 -12 -27 -22 -13.4239 -26 -24 -12 -27.5792 
-28 -12 -27.5362 -30 -12 -26.6418 -30.7581 -12 -26 
-18 -10 -26.3394 -18 -10.66 -26 -17.5167 -10 -26 
-20 -10 -27.209 -30 -10 -26.7581 -30.6418 -10 -26 
-18 -8.36376 -26 -18.208 -8 -26 -20 -8 -26.8267 
-30 -8 -26.1049 -30.0746 -8 -26 -20 -7.33684 -26 
-22 -6.5653 -26 -23.9005 -6 -26 -24.2869 -6 -26 
-26 -6.17911 -26 -28 -6.51437 -26 -30 -7.90564 -26 
-24 -5.96874 -26 -26 -18 -24.2835 -26 -18.3702 -24 
-25.332 -18 -24 -28 -18 -24.5997 -28 -18.8267 -24 
-30 -18 -24.2835 -30 -18.3702 -24 -30.4685 -18 -24 
-22 -16 -24.4208 -22 -16.5506 -24 -21.1496 -16 -24 
-24 -16 -25 -24 -17.2929 -24 -26 -16 -25.3159 
-28 -16 -25.4003 -30 -16 -25.209 -32 -16.2566 -24 
-32 -16 -24.16 -32.1473 -16 -24 -20 -14 -24.7526 
-20 -15.1151 -24 -18.66 -14 -24 -22 -14 -25.5792 
-32 -14 -24.7091 -32.5563 -14 -24 -16 -12 -24.2842 
-16 -12.4156 -24 -15.5844 -12 -24 -18 -12 -25.2474 
-18 -13.5418 -24 -32 -12 -24.3123 -32.205 -12 -24 
-16 -10 -24.8921 -14.9095 -10 -24 -31.2941 -10 -24 
-32 -11.6016 -24 -16 -8 -24.1879 -15.7795 -8 -24 
-18 -8 -25.8645 -30.4516 -8 -24 -16 -7.84718 -24 
-18 -7.11605 -24 -20 -7 -24 -22 -6.91407 -24 
-24 -6.80493 -24 -24 -6 -25.9406 -26 -6.82247 -24 
-28 -6.80493 -24 -30 -7.51308 -24 -26 -20 -22.5704 
-26 -20.5704 -22 -25 -20 -22 -28 -20 -23 
-28 -21 -22 -30 -20 -22.6235 -30 -20.6785 -22 
-30.9341 -20 -22 -20 -18 -22.3654 -20 -18.4389 -22 
-19.4202 -18 -22 -22 -18 -22.8921 -22 -18.9634 -22 
-24 -18 -23.3765 -24 -19.4296 -22 -32 -18 -22.8207 
-32 -19 -22 -32.7066 -18 -22 -18 -16 -22.498 
-18 -16.7337 -22 -17.1772 -16 -22 -20 -16 -23.4531 
-33.209 -16 -22 -16 -14 -22.9663 -16 -15.1513 -22 
-14.1711 -14 -22 -18 -14 -23.6346 -33.0859 -14 -22 
-14 -12 -22.9663 -14 -13.8289 -22 -12.8931 -12 -22 
-32.5997 -12 -22 -12 -10 -22.0774 -12 -10.1628 -22 
-11.9226 -10 -22 -14 -10 -23.2939 -31.2939 -10 -22 
-32 -11.0477 -22 -12 -9.61779 -22 -12.7797 -8 -22 
-14 -8 -22.5873 -30 -8 -22.2912 -29.792 -8 -22 
-30 -8.10887 -22 -14 -7.54841 -22 -16 -7.44365 -22 
-18 -7.40028 -22 -20 -7.40028 -22 -22 -7.40028 -22 
-24 -7.40028 -22 -26 -7.40028 -22 -28 -7.40028 -22 
-26 -22 -20.5704 -26 -22.5704 -20 -25 -22 -20 
-28 -22 -21 -28 -23 -20 -30 -22 -20.8921 
-30 -22.9634 -20 -32 -22 -20.2214 -32 -22.2807 -20 
-32.2807 -22 -20 -20 -20 -20.2807 -20 -20.2214 -20 
-19.7056 -20 -20 -22 -20 -20.9634 -22 -20.8921 -20 
-24 -20 -21.4296 -24 -21.4296 -20 -32 -20 -21.2934 
-33.3525 -20 -20 -18 -18 -20.8575 -18 -18.7066 -20 
-17.1793 -18 -20 -34 -18 -20.3873 -34 -18.668 -20 
-34.2835 -18 -20 -16 -16 -21 -16 -16.8692 -20 
-15.184 -16 -20 -34 -16 -20.3738 -34.205 -16 -20 
-14 -14 -21.7853 -14 -14.8422 -20 -13.2481 -14 -20 
-33.2942 -14 -20 -34 -15.6016 -20 -12 -12 -20.0731 
-12 -12.0463 -20 -11.9687 -12 -20 -32.5563 -12 -20 
-11.3133 -10 -20 -30.7071 -10 -20 -32 -11.2617 -20 
-12 -8.18204 -20 -12.3638 -8 -20 -16 -8 -20.7343 
-15 -8 -20 -16 -8.33944 -20 -18 -8.59972 -20 
-18 -8 -21 -20 -8.59972 -20 -20 -8 -21 
-22 -8.59972 -20 -22 -8 -21 -24 -8.59972 -20 
-24 -8 -21 -26 -8.59972 -20 -26 -8 -21 
-28 -8.68415 -20 -28 -8 -21.0477 -30 -9.37653 -20 
-14 -7.66056 -20 -22 -22 -18.4833 -22 -22.3394 -18 
-21.34 -22 -18 -24 -22 -19.2439 -24 -22.7925 -18 
-26 -23.3522 -18 -28 -23.7024 -18 -30 -23.8019 -18 
-32 -23.5548 -18 -34 -22 -18.1049 -34 -22.0944 -18 
-34.0746 -22 -18 -20 -21.2474 -18 -18.5231 -20 -18 
-34 -20 -19.1834 -34.7058 -20 -18 -18 -19.5455 -18 
-16.23 -18 -18 -34.9141 -18 -18 -16 -17.7346 -18 
-14.8825 -16 -18 -34.5997 -16 -18 -14 -14.4426 -18 
-13.7158 -14 -18 -33.3159 -14 -18 -34 -15.0477 -18 
-12 -12 -19.9269 -12.8931 -12 -18 -32.1473 -12 -18 
-12 -10 -18.6777 -12.8639 -10 -18 -30 -10 -18.8504 
-29.3241 -10 -18 -30 -10.4208 -18 -32 -11.84 -18 
-14 -9.35421 -18 -14 -8 -19.5167 -16 -9.35816 -18 
-18 -9.40028 -18 -20 -9.40028 -18 -22 -9.40028 -18 
-24 -9.29415 -18 -26 -9.08593 -18 -28 -9.29415 -18 
-20 -22 -16.1768 -20 -22.0746 -16 -19.9056 -22 -16 
-22 -22.5997 -16 -24 -22.3654 -16 -26 -22 -16.4705 
-25 -22 -16 -28 -22 -16.6859 -30 -22 -16.393 
-31 -22 -16 -32 -22.4389 -16 -34 -22 -17.0606 
-33.6362 -22 -16 -18 -20 -16.1322 -18 -20.0415 -16 
-17.9661 -20 -16 -26 -21.5611 -16 -28 -21.1733 -16 
-30 -21.5167 -16 -34 -21.8446 -16 -34.812 -20 -16 
-16.6366 -18 -16 -34.884 -18 -16 -16 -16.7135 -16 
-15.6346 -16 -16 -34.2835 -16 -16 -14 -14 -17.6048 
-15.2419 -14 -16 -32.5933 -14 -16 -34 -15.6127 -16 
-14 -12 -17.0337 -15.6707 -12 -16 -32 -12 -17.7587 
-30.5217 -12 -16 -32 -13.3326 -16 -14 -10 -17.4788 
-16 -11.6876 -16 -16 -10 -17.2419 -18 -11.1733 -16 
-18 -10 -17.1733 -20 -11.1733 -16 -20 -10 -17.1733 
-22 -11.1733 -16 -22 -10 -17.1733 -24 -10.7071 -16 
-24 -10 -16.8166 -25.4467 -10 -16 -28 -10 -16.0257 
-27.906 -10 -16 -28 -10.0148 -16 -30 -11.5611 -16 
-26 -9.77629 -16 -20 -22 -15.7755 -22 -22 -14.9697 
-24 -22 -15.5611 -32 -22 -15.6346 -18 -20 -15.9269 
-19.1264 -20 -14 -20 -21.0508 -14 -22 -21.1671 -14 
-24 -20.513 -14 -26 -20 -14.5704 -24.9275 -20 -14 
-28 -20 -15 -30 -20 -14.8921 -32 -20 -14.4208 
-34 -20 -14.6025 -18 -18.2978 -14 -17.84 -18 -14 
-26 -19.3199 -14 -28 -18.8267 -14 -30 -18.8624 -14 
-32 -19.2329 -14 -34 -18 -14.1355 -33.792 -18 -14 
-16 -16 -15.5611 -17.8029 -16 -14 -34 -16 -15.5315 
-32.4685 -16 -14 -16 -14 -15.3582 -18 -15.7145 -14 
-18 -14 -14.7058 -20 -15 -14 -20 -14 -14.5997 
-22 -14.9523 -14 -22 -14 -14.5997 -24 -14.3483 -14 
-24 -14 -14.205 -24.4653 -14 -14 -30 -14 -14.4208 
-29.087 -14 -14 -30 -14.6759 -14 -32 -15.6127 -14 
-32 -14 -15.4067 -16 -12 -15.795 -18 -12 -15.4003 
-20 -12 -15.4003 -22 -12 -15.4003 -24 -12 -15 
-26 -12.4314 -14 -26 -12 -14.1986 -28 -13.0633 -14 
-28 -12 -14.5653 -30 -12 -15.6213 -26 -10 -15.7317 
-20 -20 -13.4437 -22 -20 -13.209 -24 -20 -13.5283 
-18 -18 -13.8527 -20 -18 -13.0859 -22 -18 -12.8049 
-24 -18 -12.6177 -26 -18 -13.0999 -28 -18 -13.4003 
-30 -18 -13.4003 -32 -18 -13.4003 -18 -16 -13.8579 
-20 -16 -13.4003 -22 -16 -13.3159 -24 -16 -13.0999 
-26 -16 -13 -28 -16 -13.0859 -30 -16 -13.2942 
-32 -16 -13.7165 -26 -14 -13.4003 -28 -14 -13.5362 
-28 -28 -16.0313 -28 -28.0463 -16 -27.9005 -28 -16 
-28.1322 -28 -16 -26 -26 -16.4638 -26 -26.9367 -16 
-24.913 -26 -16 -28 -26 -16.8225 -30 -27.3241 -16 
-30 -26 -16.7059 -32 -26 -16.3394 -32 -26.5068 -16 
-32.6207 -26 -16 -24 -24 -16.3394 -24 -24.9124 -16 
-23.2179 -24 -16 -26 -24 -16.8225 -28 -24 -17 
-30 -24 -16.9141 -32 -24 -16.5997 -33.2547 -24 -16 
-24 -23.2341 -16 -25.332 -22 -16 -26 -22 -16.2835 
-28 -22 -16.5997 -30 -22 -16.3394 -30.9124 -22 -16 
-32 -22.7671 -16 -26 -21.6298 -16 -28 -21.1733 -16 
-30 -21.5167 -16 -26 -30 -14.3654 -26 -30.4389 -14 
-25.4202 -30 -14 -28 -30 -14.7926 -28 -30.924 -14 
-30 -30 -14.4208 -30 -30.5506 -14 -31 -30 -14 
-24 -28 -14.498 -24 -28.7337 -14 -23.301 -28 -14 
-26 -28 -15.4531 -30 -28 -15.5792 -32 -29.4239 -14 
-32 -28 -15 -33.9796 -28 -14 -22 -26 -14.3702 
-22 -26.4685 -14 -21.7066 -26 -14 -24 -26 -15.5792 
-34 -26 -14.9818 -34 -27.972 -14 -34.6672 -26 -14 
-22 -24 -15.2223 -21.2471 -24 -14 -34 -24 -15.3975 
-34.7887 -24 -14 -22 -22.0245 -14 -24 -22 -15.3525 
-22.0179 -22 -14 -32 -22 -15.5792 -34 -22 -14.3702 
-34.2934 -22 -14 -24 -20.7066 -14 -26 -20 -14.5704 
-25.1287 -20 -14 -28 -20 -15 -30 -20 -14.8533 
-32 -20 -14.2298 -32.3402 -20 -14 -34 -21.5562 -14 
-26 -19.4296 -14 -28 -19 -14 -30 -19.1467 -14 
-32 -19.7702 -14 -26 -32 -12.5704 -26 -32.5704 -12 
-25.1287 -32 -12 -28 -32 -13 -28 -33 -12 
-30 -32 -12.8921 -30 -32.9634 -12 -32 -32 -12.3654 
-32 -32.4389 -12 -32.5492 -32 -12 -24 -30 -13 
-24 -31.1425 -12 -22.7337 -30 -12 -32 -30 -13.5792 
-34 -30.4685 -12 -34 -30 -12.3702 -34.2934 -30 -12 
-22 -28 -12.8207 -22 -29.1287 -12 -21.2934 -28 -12 
-34 -28 -13.9803 -34.884 -28 -12 -21.0918 -26 -12 
-35 -26 -12 -21.3328 -24 -12 -34.9141 -24 -12 
-22 -22.188 -12 -22.1142 -22 -12 -34.5563 -22 -12 
-24 -20.2511 -12 -24.3328 -20 -12 -33.0508 -20 -12 
-34 -20.9492 -12 -26 -18.7971 -12 -28 -18.2976 -12 
-30 -18.6478 -12 -32 -19.3701 -12 -26 -34 -10.6235 
-26 -34.6785 -10 -24.7659 -34 -10 -28 -34 -11 
-28 -35 -10 -30 -34 -11 -30 -35 -10 
-32 -34 -10.4389 -32 -34.4211 -10 -32.4582 -34 -10 
-22 -32 -10.3654 -22 -32.4582 -10 -21.4508 -32 -10 
-24 -32 -11.2934 -24 -33.5418 -10 -34 -32 -10.4685 
-34 -32.3873 -10 -34.2835 -32 -10 -22 -30 -11.4847 
-20.0147 -30 -10 -34.9141 -30 -10 -20.2943 -28 -10 
-34.9141 -28 -10 -21.5102 -26 -10 -34.6672 -26 -10 
-22 -25.2884 -10 -22 -24 -11.0182 -23.2205 -24 -10 
-34.1473 -24 -10 -24 -23.0633 -10 -24 -22 -10.6102 
-25.2341 -22 -10 -34 -22 -11.1263 -32.6207 -22 -10 
-34 -23.7022 -10 -26 -21.4329 -10 -26 -20 -10.9782 
-28 -21 -10 -28 -20 -10.6859 -30 -21.0477 -10 
-30 -20 -10.7867 -32 -21.4932 -10 -32 -20 -11.2618 
-24 -36 -8.36544 -24 -36.4389 -8 -23.4202 -36 -8 
-26 -36 -8.89211 -26 -36.9634 -8 -28 -36 -9 
-28 -37 -8 -30 -36 -8.96341 -30 -36.8921 -8 
-31.9762 -36 -8 -22 -34 -8.70659 -22 -34.8575 -8 
-21.1023 -34 -8 -24 -34 -9.63456 -32 -35.9836 -8 
-33.1844 -34 -8 -20 -32 -8.63445 -20 -32.7043 -8 
-19.5283 -32 -8 -34 -32.3738 -8 -34.205 -32 -8 
-20 -30 -9.94103 -19.6346 -30 -8 -34.5563 -30 -8 
[...]
POINT_DATA 4724
SCALARS scalars unsigned_short
LOOKUP_TABLE default
17 17 17 17 17 17 17 17 17 
17 17 17 17 17 17 17 17 17 
17 17 17 17 17 17 17 17 17 
17 17 17 17 17 17 17 17 17 
17 17 17 17 17 17 17 17 17 
17 17 17 17 17 17 17 17 17 
17 17 17 17 17 17 17 17 17 
17 17 17 17 17 17 17 17 17 
17 17 17 17 17 17 17 17 17 
17 17 17 17 17 17 17 17 17 
17 17 17 17 17 17 17 17 17 
17 17 17 17 17 17 17 17 17 
17 17 17 17 17 17 17 17 17 
17 17 17 17 17 17 17 17 17 
17 17 17 17 17 17 17 17 17 
17 17 17 17 17 17 17 17 17 
17 17 17 17 17 17 17 17 17 
17 17 17 17 17 17 17 17 17 
17 17 17 17 17 17 17 17 17 
17 17 17 17 17 17 17 17 17 
17 17 17 17 17 17 17 17 17 
17 17 17 17 17 17 17 17 17 
17 17 17 17 17 17 17 17 17 
17 17 17 17 17 17 17 17 17 
17 17 17 17 17 17 17 17 17 
17 17 17 17 17 17 17 17 17 
17 17 17 17 17 17 17 17 17 
17 17 17 17 17 17 17 17 17 
17 17 17 17 17 17 17 17 17 
17 17 17 17 17 17 17 17 17 
17 17 17 17 17 17 17 17 17 
17 17 17 17 17 17 17 17 17 
17 17 17 17 17 17 17 17 17 
17 17 17 17 17 17 17 17 17 
17 17 17 17 17 17 17 17 17 
17 17 17 17 17 17 17 17 17 
17 17 17 17 17 17 17 17 17 
17 17 17 17 17 17 17 17 17 
17 17 17 17 17 17 17 17 17 
17 17 17 17 17 17 17 17 17 
17 17 17 17 17 17 17 17 17 
17 17 17 17 17 17 17 17 17 
17 17 17 17 17 17 17 17 17 
17 17 17 17 17 17 17 17 17 
18 18 18 18 18 18 18 18 18 
18 18 18 18 18 18 18 18 18 
18 18 18 18 18 18 18 18 18 
18 18 18 18 18 18 18 18 18 
18 18 18 18 18 18 18 18 18 
18 18 18 18 18 18 18 18 18 
18 18 18 18 18 18 18 18 18 
18 18 18 18 18 18 18 18 18 
18 18 18 18 18 18 18 18 18 
18 18 18 18 18 18 18 18 18 
18 18 18 18 18 18 18 18 18 
18 18 18 18 18 18 18 18 18 
18 18 18 18 18 18 18 18 18 
18 18 18 18 18 18 18 18 18 
18 18 18 18 18 18 18 18 18 
18 18 18 18 18 18 18 18 18 
18 18 18 18 18 18 18 18 18 
18 18 18 18 18 18 18 18 18 
18 18 18 18 18 18 18 18 18 
18 18 18 18 18 18 18 18 18 
18 18 18 18 18 18 18 18 18 
18 18 18 18 18 18 18 18 18 
18 18 18 18 18 18 18 18 18 
18 18 18 18 18 18 18 18 18 
18 18 18 18 18 18 18 18 18 
18 18 18 18 18 18 18 18 18 
18 18 18 18 18 18 18 18 18 
18 18 18 18 18 18 18 18 18 
18 18 18 18 18 18 18 18 18 
18 18 18 18 18 18 18 18 18 
18 18 18 18 18 18 18 18 18 
18 18 18 18 18 18 18 18 18 
18 18 18 18 18 18 18 18 18 
18 18 18 18 18 18 18 18 18 
18 18 18 18 18 18 18 18 18 
18 18 18 18 18 18 18 18 18 
18 18 18 18 18 18 18 18 18 
18 18 18 18 18 18 18 18 18 
18 18 18 18 18 18 18 18 18 
18 18 18 18 18 18 18 18 18 
18 18 18 18 18 18 18 18 18 
18 18 18 18 18 18 18 18 18 
18 18 18 18 18 18 18 18 18 
18 18 18 18 18 18 18 18 18 
18 18 18 18 18 18 19 19 19 
19 19 19 19 19 19 19 19 19 
19 19 19 19 19 19 19 19 19 
19 19 19 19 19 19 19 19 19 
19 19 19 19 19 19 19 19 19 
19 19 19 19 19 19 19 19 19 
19 19 19 19 19 19 19 19 19 
19 19 19 19 19 19 19 19 19 
19 19 19 19 19 19 19 19 19 
19 19 19 19 19 19 19 19 19 
19 19 19 19 19 19 19 19 19 
19 19 19 19 19 19 19 19 19 
19 19 19 19 19 19 19 19 19 
19 19 19 19 19 19 19 19 19 
19 19 19 19 19 19 19 19 19 
19 19 19 19 19 19 19 19 19 
19 19 19 19 19 19 19 19 19 
19 19 19 19 19 19 19 19 19 
19 19 19 19 19 19 19 19 19 
19 19 19 19 19 19 19 19 19 
19 19 19 19 19 19 19 19 19 
19 19 19 19 19 19 19 19 19 
19 19 19 19 19 19 19 19 19 
19 19 19 19 19 19 19 19 19 
19 19 19 19 19 19 20 20 20 
20 20 20 20 20 20 20 20 20 
20 20 20 20 20 20 20 20 20 
20 20 20 20 20 20 20 20 20 
20 20 20 20 20 20 20 20 20 
20 20 20 20 20 20 20 20 20 
20 20 20 20 20 20 20 20 20 
20 20 20 20 20 20 20 20 20 
20 20 20 20 20 20 20 20 20 
20 20 20 20 20 20 20 20 20 
20 20 20 20 20 20 20 20 20 
20 20 20 20 20 20 20 20 20 
20 20 20 20 20 20 20 20 20 
20 20 20 20 20 20 20 20 20 
20 20 20 20 20 20 20 20 20 
20 20 20 20 20 20 20 20 20 
20 20 20 20 20 20 20 20 20 
20 20 20 20 20 20 20 20 20 
20 20 20 20 20 20 20 20 20 
20 20 20 20 20 20 20 20 20 
20 20 20 20 20 20 20 20 20 
20 20 20 20 20 20 20 20 20 
20 20 20 20 20 20 20 20 20 
20 20 20 20 20 20 20 20 20 
20 20 20 20 20 20 20 20 20 
20 20 20 20 20 20 20 20 20 
20 20 20 20 20 20 20 20 20 
20 20 20 20 20 20 20 20 20 
21 21 21 21 21 21 21 21 21 
21 21 21 21 21 21 21 21 21 
21 21 21 21 21 21 21 21 21 
21 21 21 21 21 21 21 21 21 
21 21 21 21 21 21 21 21 21 
21 21 21 21 21 21 21 21 21 
21 21 21 21 21 21 21 21 21 
21 21 21 21 21 21 21 21 21 
21 21 21 21 21 21 21 21 21 
21 21 21 21 21 21 21 21 21 
21 21 21 21 21 21 21 21 21 
21 21 21 21 21 21 21 21 21 
21 21 21 21 21 21 21 21 21 
21 21 21 21 21 21 21 21 21 
21 21 21 21 21 21 21 21 21 
21 21 21 21 21 21 21 21 21 
21 21 21 21 21 21 21 21 21 
21 21 21 21 21 21 21 21 21 
21 21 21 21 21 21 21 21 21 
21 21 21 21 21 21 21 21 21 
21 21 21 21 21 21 21 21 21 
21 21 21 21 21 21 21 21 21 
21 21 21 21 21 21 21 21 21 
21 21 21 21 21 21 21 21 21 
21 21 21 21 21 21 21 21 21 
21 21 21 21 21 21 21 21 21 
21 21 21 21 21 21 21 21 21 
21 21 21 21 21 21 21 21 21 
21 21 22 22 22 22 22 22 22 
22 22 22 22 22 22 22 22 22 
22 22 22 22 22 22 22 22 22 
22 22 22 22 22 22 22 22 22 
22 22 22 22 22 22 22 22 22 
22 22 22 22 22 22 22 22 22 
22 22 22 22 22 22 22 22 22 
22 22 22 22 22 22 22 22 22 
22 22 22 22 22 22 22 22 22 
22 22 22 22 22 22 22 22 22 
22 22 22 22 22 22 22 22 22 
22 22 22 22 22 22 22 22 22 
22 22 22 22 22 22 22 22 22 
22 22 22 22 22 22 22 22 22 
22 22 22 22 22 22 22 22 22 
22 22 22 22 22 22 22 22 22 
22 22 22 22 22 22 22 22 22 
22 22 22 22 22 22 22 22 22 
22 22 22 22 22 22 22 22 22 
22 22 22 22 22 22 22 22 22 
22 22 22 22 22 22 22 22 22 
22 22 22 22 22 22 22 22 22 
22 22 22 22 22 22 22 22 22 
22 22 22 22 22 22 22 22 22 
22 22 22 22 22 22 22 22 22 
22 22 22 22 22 22 22 22 22 
22 22 22 22 22 22 22 22 22 
22 23 23 23 23 23 23 23 23 
23 23 23 23 23 23 23 23 23 
23 23 23 23 23 23 23 23 23 
23 23 23 23 23 23 23 23 23 
23 23 23 23 23 23 23 23 23 
23 23 23 23 23 23 23 23 23 
23 23 23 23 23 23 23 23 23 
23 23 23 23 23 23 23 23 23 
23 23 23 23 23 23 23 23 23 
23 23 23 23 23 23 23 23 23 
23 23 23 23 23 23 23 23 23 
23 23 23 23 23 23 23 23 23 
23 23 23 23 23 23 23 23 23 
23 23 23 23 23 23 23 23 23 
23 23 23 23 23 23 23 23 23 
23 23 23 23 23 23 23 23 23 
23 23 23 23 23 23 23 23 23 
23 23 23 23 23 23 23 23 23 
23 23 23 23 23 23 23 23 23 
23 23 23 23 23 23 23 23 23 
23 23 23 23 23 23 23 23 23 
23 23 23 23 23 23 23 23 23 
23 23 23 23 23 23 23 23 23 
23 23 23 23 23 23 23 23 23 
23 23 23 23 23 23 23 23 23 
23 23 23 23 23 23 23 23 23 
23 23 23 23 23 23 23 23 23 
23 23 23 23 23 23 23 23 23 
23 23 23 23 23 23 23 23 23 
23 23 23 23 23 23 23 23 23 
23 23 23 23 23 23 23 23 23 
23 23 23 23 23 23 23 23 23 
23 23 23 23 23 23 23 23 23 
23 23 23 23 23 23 23 23 23 
23 23 23 23 23 23 23 23 23 
23 23 23 23 23 23 23 23 23 
23 23 23 23 23 23 23 23 23 
23 23 23 23 23 23 23 23 23 
23 23 23 23 23 23 23 23 23 
23 23 23 23 23 23 23 23 23 
23 23 23 23 23 23 23 23 23 
23 23 23 23 23 23 23 23 23 
23 23 23 23 23 23 23 23 23 
23 23 23 23 23 23 23 23 23 
23 23 23 23 23 23 23 23 23 
23 23 23 23 23 23 23 23 23 
23 23 23 23 23 23 23 23 23 
23 23 23 23 23 23 23 23 23 
23 23 23 23 23 23 23 23 23 
23 23 23 23 23 23 23 23 23 
23 23 23 23 23 23 23 23 23 
23 23 23 23 23 23 23 23 23 
23 23 23 23 23 23 23 23 23 
23 23 23 23 23 23 23 23 23 
23 23 23 23 23 23 23 23 23 
23 23 23 23 23 23 23 23 23 
23 23 23 23 23 23 23 24 24 
24 24 24 24 24 24 24 24 24 
24 24 24 24 24 24 24 24 24 
24 24 24 24 24 24 24 24 24 
24 24 24 24 24 24 24 24 24 
24 24 24 24 24 24 24 24 24 
24 24 24 24 24 24 24 24 24 
24 24 24 24 24 24 24 24 24 
24 24 24 24 24 24 24 24 24 
24 24 24 24 24 24 24 24 24 
24 24 24 24 24 24 24 24 24 
24 24 24 24 24 24 24 24 24 
24 24 24 24 24 24 24 24 24 
24 24 24 24 24 24 24 24 24 
24 24 24 24 24 24 24 24 24 
24 24 24 24 24 24 24 24 24 
24 24 24 24 24 24 24 24 24 
24 24 24 24 24 24 24 24 24 
24 24 24 24 24 24 24 24 24 
24 24 24 24 24 24 24 24 24 
24 24 24 24 24 24 24 24 24 
24 24 24 24 24 24 24 24 24 
24 24 24 24 24 24 24 24 24 
24 24 24 24 24 24 24 24 24 
24 24 24 24 24 24 24 24 24 
24 24 24 24 24 24 24 24 24 
24 24 24 24 24 24 24 24 24 
24 24 24 24 24 24 24 24 24 
24 24 24 24 24 24 24 24 24 
24 24 24 24 24 24 24 24 24 
24 24 24 24 24 24 24 24 24 
24 24 24 24 24 24 24 24 24 
24 24 24 24 24 24 24 24 24 
24 24 24 24 24 24 24 24 24 
24 24 24 24 24 24 24 24 24 
24 24 24 24 24 24 24 24 24 
24 24 24 24 24 24 24 24 24 
24 24 24 24 24 24 24 24 24 
24 24 24 24 24 24 24 24 24 
24 24 24 24 24 24 24 24 24 
24 24 24 24 24 24 24 25 25 
25 25 25 25 25 25 25 25 25 
25 25 25 25 25 25 25 25 25 
25 25 25 25 25 25 25 25 25 
25 25 25 25 25 25 25 25 25 
25 25 25 25 25 25 25 25 25 
25 25 25 25 25 25 25 25 25 
25 25 25 25 25 25 25 25 25 
25 25 25 25 25 25 25 25 25 
25 25 25 25 25 25 25 25 25 
25 25 25 25 25 25 25 25 25 
25 25 25 25 25 25 25 25 25 
25 25 25 25 25 25 25 25 25 
25 25 25 25 25 25 25 25 25 
25 25 25 25 25 25 25 25 25 
25 25 25 25 25 25 25 25 25 
25 25 25 25 25 25 25 25 25 
25 25 25 25 25 25 25 25 25 
25 25 25 25 25 25 25 25 25 
25 25 25 25 26 26 26 26 26 
26 26 26 26 26 26 26 26 26 
26 26 26 26 26 26 26 26 26 
26 26 26 26 26 26 26 26 26 
26 26 26 26 26 26 26 26 26 
26 26 26 26 26 26 26 26 26 
26 26 26 26 26 26 26 26 26 
26 26 26 26 26 26 26 26 26 
26 26 26 26 26 26 26 26 26 
26 26 26 26 26 26 26 26 26 
26 26 26 26 26 26 26 26 26 
26 26 26 26 26 26 26 26 26 
26 26 26 26 26 26 26 26 26 
26 26 26 26 26 26 26 26 26 
26 26 26 26 26 26 26 26 26 
26 26 26 26 26 27 27 27 27 
27 27 27 27 27 27 27 27 27 
27 27 27 27 27 27 27 27 27 
27 27 27 27 27 27 27 27 27 
27 27 27 27 27 27 27 27 27 
27 27 27 27 27 27 27 27 27 
27 27 27 27 27 27 27 27 27 
27 27 27 27 27 27 27 27 27 
27 27 27 27 27 27 27 27 27 
27 27 27 27 27 27 27 27 27 
27 27 27 27 27 27 27 27 27 
27 27 27 27 27 27 27 27 27 
27 27 27 27 27 27 27 27 27 
27 27 27 27 27 27 27 27 27 
27 27 27 27 27 27 27 27 27 
27 27 27 27 28 28 28 28 28 
28 28 28 28 28 28 28 28 28 
28 28 28 28 28 28 28 28 28 
28 28 28 28 28 28 28 28 28 
28 28 28 28 28 28 28 28 28 
28 28 28 28 28 28 28 28 28 
28 28 28 28 28 28 28 28 28 
28 28 28 28 28 28 28 28 28 
28 28 28 28 28 28 28 28 28 
28 28 28 28 28 28 28 28 28 
28 28 28 28 28 28 28 28 28 
28 28 28 28 28 28 28 28 28 
28 28 28 28 28 28 28 28 28 
28 28 28 28 28 28 28 28 28 
28 28 28 28 28 28 28 28 28 
28 28 28 28 28 28 28 28 28 
28 28 28 28 28 28 28 28 28 
28 28 28 28 28 28 28 28 28 
28 28 28 28 28 28 29 29 29 
29 29 29 29 29 29 29 29 29 
29 29 29 29 29 29 29 29 29 
29 29 29 29 29 29 29 29 29 
29 29 29 29 29 29 29 29 29 
29 29 29 29 29 29 29 29 29 
29 29 29 29 29 29 29 29 29 
29 29 29 29 29 29 29 29 29 
29 29 29 29 29 29 29 29 29 
29 29 29 29 29 29 29 29 29 
29 29 29 29 29 29 29 29 29 
29 29 29 29 29 29 29 29 29 
29 29 29 29 29 29 29 29 29 
29 29 29 29 29 29 29 29 29 
29 29 29 29 29 29 29 29 29 
29 29 29 29 29 29 29 29 29 
29 29 29 29 29 29 29 29 29 
29 29 29 29 29 29 29 29 29 
29 29 29 29 29 29 29 29 29 
29 29 29 29 29 29 29 29 29 
29 29 29 29 29 29 29 29 29 
29 29 29 29 29 29 29 29 29 
29 29 29 29 29 29 29 29 29 
29 29 29 29 29 29 29 29 29 
29 29 29 29 29 29 29 29 29 
29 29 29 29 29 29 29 29 29 
29 29 29 29 29 29 29 29 29 
29 29 29 29 29 29 29 29 29 
29 29 29 29 29 29 29 29 29 
29 29 29 29 29 29 29 29 29 
29 29 29 29 29 29 29 29 29 
29 29 29 29 29 29 29 29 29 
29 29 29 29 29 29 29 29 29 
29 29 29 29 29 29 29 29 29 
29 29 29 29 29 29 29 29 29 
29 29 29 29 29 29 29 29 29 
29 29 29 29 29 29 29 29 29 
29 29 29 29 29 29 29 29 29 
29 29 29 29 29 29 29 29 29 
29 29 29 29 29 29 29 29 29 
29 29 29 29 29 29 29 29 29 
29 29 29 29 29 29 29 29 29 
29 29 29 29 29 29 29 29 29 
29 29 29 29 29 29 29 29 29 
29 29 29 29 29 29 29 29 29 
29 29 29 29 29 29 29 29 29 
29 29 29 29 29 29 29 29 29 
29 29 29 29 29 29 29 29 29 
29 29 29 29 29 29 29 29 29 
29 29 29 29 29 29 29 29 29 
30 30 30 30 30 30 30 30 30 
30 30 30 30 30 30 30 30 30 
30 30 30 30 30 30 30 30 30 
30 30 30 30 30 30 30 30 30 
30 30 30 30 30 30 30 30 30 
30 30 30 30 30 30 30 30 30 
30 30 30 30 30 30 30 30 30 
30 30 30 30 30 30 30 30 30 
30 30 30 30 30 30 30 30 30 
30 30 30 30 30 30 30 30 30 
30 30 30 30 30 30 30 30 30 
30 30 30 30 30 30 30 30 30 
30 30 30 30 30 30 30 30 30 
30 30 30 30 30 30 30 30 30 
30 30 30 30 30 30 30 30 30 
30 30 30 30 30 30 30 30 30 
30 30 30 30 30 30 30 30 30 
30 30 30 30 30 30 30 30 30 
30 30 30 30 30 30 30 30 30 
30 30 30 30 30 30 30 30 30 
30 30 30 30 30 30 30 30 30 
30 30 30 30 30 30 30 30 30 
30 30 30 30 30 30 30 30 30 
30 30 30 30 30 30 30 30 30 
30 30 30 30 30 30 30 30 30 
30 30 30 30 30 30 30 30 30 
30 30 30 30 30 30 30 30 30 
30 30 30 30 30 30 30 30 30 
30 30 30 30 30 30 30 30 30 
30 30 30 30 30 30 30 30 30 
30 30 30 30 30 30 30 30 30 
30 30 30 30 30 30 30 30 30 
30 30 30 30 30 30 30 30 30 
30 30 30 30 30 30 30 30 30 
30 30 30 30 30 30 30 30 30 
30 30 30 30 30 30 30 30 30 
30 30 30 30 30 30 30 30 30 
30 30 30 30 30 30 30 30 30 
30 30 30 30 30 30 30 30 30 
30 30 30 30 30 30 30 30 30 
30 30 30 30 30 30 30 30 30 
30 30 30 30 30 30 30 30 30 
30 30 30 30 30 30 30 30 30 
30 30 30 30 30 30 30 30 30 
30 30 30 30 30 30 30 30 30 
30 30 30 30 30 30 30 30 30 
30 30 30 30 30 30 30 30 30 
30 30 30 30 30 30 30 30 30 
30 30 30 30 30 30 30 30 30 
30 30 30 30 30 30 30 30 30 
30 30 30 30 30 30 30 30 30 
30 30 30 30 30 30 30 30 30 
30 30 30 30 30 30 30 30 30 
30 30 30 30 30 30 30 30 30 
30 30 30 30 30 30 30 30 30 
30 30 30 30 30 30 30 30 30 
31 31 31 31 31 31 31 31 31 
31 31 31 31 31 31 31 31 31 
31 31 31 31 31 31 31 31 31 
31 31 31 31 31 31 31 31 31 
31 31 31 31 31 31 31 31 31 
31 31 31 31 31 31 31 31 31 
31 31 31 31 31 31 31 31 31 
31 31 31 31 31 31 31 31 31 
31 31 31 31 31 31 31 31 31 
31 31 31 31 31 31 31 31 31 
31 31 31 31 31 31 31 31 31 
31 31 31 31 31 31 31 31 31 
31 31 31 31 31 31 31 31 31 
31 31 31 31 31 31 31 31 31 
31 31 31 31 31 31 31 31 31 
31 31 31 31 31 31 31 31 31 
31 31 31 31 31 31 31 31 31 
31 31 31 31 31 31 31 31 31 
31 31 31 31 31 31 31 31 31 
31 31 31 31 31 31 31 31 31 
31 31 31 31 31 31 31 31 31 
31 31 31 31 31 31 31 31 31 
31 31 31 31 31 31 31 31 31 
31 31 31 31 31 31 31 31 31 
31 31 31 31 31 31 31 31 31 
31 31 31 31 31 31 31 31 31 
31 31 31 31 31 31 31 31 31 
31 31 31 31 31 31 31 31 31 
31 31 31 31 31 31 31 31 31 
31 31 31 31 31 31 31 31 31 
31 31 31 31 31 31 31 31 31 
31 31 31 31 31 31 31 31 31 
31 31 31 31 31 31 31 31 31 
31 31 31 31 31 31 31 31 31 
31 31 31 31 31 31 31 31 31 
31 31 31 31 31 31 31 31 31 
31 31 31 31 31 31 32 32 32 
32 32 32 32 32 32 32 32 32 
32 32 32 32 32 32 32 32 32 
32 32 32 32 32 32 32 32 32 
32 32 32 32 32 32 32 32 32 
32 32 32 32 32 32 32 32 32 
32 32 32 32 32 32 32 32 32 
32 32 32 32 32 32 32 32 32 
32 32 32 32 32 32 32 32 32 
32 32 32 32 32 32 32 32 32 
32 32 32 32 32 32 32 32 32 
32 32 32 32 32 32 32 32 32 
32 32 32 32 32 32 32 32 32 
32 32 32 32 32 32 32 32 32 
32 32 32 32 32 32 32 32 32 
32 32 32 32 32 32 32 32 32 
32 32 32 32 32 32 32 32 32 
32 32 32 32 32 32 32 32 32 
32 32 32 32 32 32 32 32 32 
32 32 32 32 32 32 32 32 32 
32 32 32 32 32 32 32 32 32 
32 32 32 32 32 32 32 32 32 
32 32 32 32 32 32 32 32 32 
32 32 32 32 32 32 32 32 32 
32 32 32 32 32 32 32 32 
NORMALS normals float
0.018307 0.510984 0.859395 0.0170837 0.513901 0.85768 0.000965937 0.51526 0.857033 
0.035927 0.507866 0.860687 -0.380654 0.333457 0.862502 -0.372992 0.373092 0.849517 
-0.403741 0.307029 0.861816 -0.165259 0.331626 0.928824 -0.224033 0.487474 0.843907 
0.0974905 0.208039 0.97325 0.422174 0.265907 0.866639 0.457356 0.160307 0.874715 
0.521501 0.138285 0.841971 -0.516255 -0.163506 0.840682 -0.575425 -0.20764 0.791057 
-0.111825 -0.120374 0.98641 0.208372 -0.243367 0.947288 0.525452 -0.328887 0.784687 
0.563721 -0.332273 0.756184 -0.596718 -0.452829 0.662476 -0.161577 -0.863491 0.477783 
-0.0873902 -0.853066 0.514433 0.0336903 -0.874256 0.484296 0.336305 -0.757981 0.558895 
0.544172 -0.401168 0.736845 -0.0870656 -0.877025 0.472489 -0.261539 0.558487 0.787204 
-0.249431 0.570253 0.782685 -0.303757 0.55753 0.772588 -0.0609293 0.595499 0.801042 
-0.0781522 0.588944 0.804387 0.144124 0.515616 0.844611 0.0847552 0.530093 0.843693 
0.403914 0.345105 0.847205 0.378789 0.370156 0.848235 0.445417 0.32108 0.83577 
-0.371165 0.531066 0.761712 -0.372976 0.557773 0.741471 -0.399771 0.533964 0.745027 
-0.282745 0.552458 0.784121 -0.324788 0.554175 0.766422 -0.240102 0.534871 0.810101 
0.334395 0.397856 0.854336 0.585752 0.130621 0.799895 0.682379 0.0409598 0.72985 
-0.529111 0.135428 0.837676 -0.519693 0.263015 0.812861 -0.561416 0.126726 0.817773 
-0.455997 0.126347 0.880967 0.750027 -0.0743909 0.657211 0.823958 -0.155301 0.544953 
-0.519797 -0.395206 0.757379 -0.482865 -0.53168 0.695815 -0.498225 -0.530861 0.685535 
0.770354 -0.481671 0.41779 0.775544 -0.486941 0.40177 -0.391782 -0.795975 0.461445 
-0.379543 -0.923877 -0.0489751 -0.112068 -0.957492 -0.2658 -0.0656843 -0.963164 -0.260768 
0.140865 -0.975255 -0.170396 0.377772 -0.919327 0.110115 0.766842 -0.502999 0.398681 
-0.098681 -0.957606 -0.270654 -0.254207 0.564608 0.785237 -0.262377 0.587342 0.765629 
-0.277501 0.594271 0.754874 -0 0.528153 0.849149 -0 0.605281 0.796012 
0.322705 0.540938 0.77669 0.325623 0.566581 0.756938 0.3897 0.542606 0.744119 
-0.330444 0.55395 0.764164 -0.311781 0.576082 0.755594 -0.367536 0.530501 0.763863 
-0.21592 0.595613 0.773708 -0.277718 0.62446 0.730015 -0.100852 0.555309 0.825507 
0.0298372 0.501444 0.864676 0.271551 0.447543 0.852036 0.668926 0.359559 0.650581 
0.669756 0.339885 0.660231 0.692303 0.332435 0.640471 -0.400642 0.561705 0.72386 
-0.416486 0.511613 0.751526 -0.387777 0.560731 0.73158 -0.343162 0.543491 0.766066 
0.768598 0.0514244 0.637662 0.855516 0.00749679 0.517721 -0.475671 0.406606 0.780005 
-0.446191 0.441669 0.778358 -0.495326 0.37862 0.781856 -0.427466 0.530983 0.731663 
-0.374804 0.570891 0.730483 0.849645 -0.293437 0.438177 0.862299 -0.319072 0.393235 
-0.652263 0.0167858 0.757807 -0.627499 -0.0229192 0.77828 0.892415 -0.418053 0.169785 
0.867093 -0.344964 0.359374 -0.574826 -0.632357 0.519326 -0.565728 -0.632442 0.529121 
-0.486565 -0.543571 0.683948 0.757401 -0.65247 -0.0250279 -0.550762 -0.679248 0.48506 
-0.223923 -0.965212 0.134999 -0.0665101 -0.997372 -0.0287418 -0.0635726 -0.969892 -0.235093 
-0.0294534 -0.928437 -0.37032 -0.0971924 -0.956579 -0.27479 -0 -0.942998 -0.3328 
0.169459 -0.953139 -0.250619 0.661204 -0.748333 -0.0529853 -0.294214 0.668881 0.682669 
-0.29151 0.676396 0.676396 -0.310876 0.67207 0.67207 -0.0077575 0.69067 0.723129 
-0.0241471 0.706901 0.706901 0.316259 0.637549 0.702504 0.283834 0.641133 0.713013 
0.431938 0.574721 0.695072 -0.361441 0.573611 0.735072 -0.353571 0.606954 0.711754 
-0.416349 0.581137 0.699238 -0.21561 0.643095 0.734807 -0.184817 0.677666 0.711766 
-0.285231 0.646654 0.707448 -0.294574 0.673592 0.677864 0.628381 0.458979 0.628073 
0.60179 0.466175 0.648483 0.692647 0.379278 0.613505 -0.451008 0.502382 0.737702 
-0.487965 0.52913 0.694199 -0.46804 0.564814 0.67965 -0.409799 0.482296 0.774245 
0.876576 0.0768531 0.475087 -0.345539 0.584525 0.734121 -0.431925 0.630483 0.644928 
-0.576221 0.596215 0.559015 -0.364886 0.560826 0.743191 0.96072 -0.177918 0.212983 
-0.611125 0.284378 0.738685 -0.599467 0.573883 0.557941 -0.708009 0.384358 0.592446 
0.891626 -0.444493 0.086192 -0.764068 0.121361 0.633618 -0.771914 0.147394 0.618405 
-0.776503 0.122399 0.618111 -0.5891 -0.0558126 0.80613 0.8117 -0.572703 -0.114691 
0.852734 -0.521736 0.0252113 -0.778956 0.0107179 0.626988 -0.525361 -0.694557 0.491515 
-0.365472 -0.746681 0.555786 0.584361 -0.732751 -0.34871 0.519158 -0.749574 -0.410627 
0.567217 -0.725175 -0.390366 -0.228926 -0.900938 0.368651 -0.0449452 -0.990025 -0.133528 
-0.0122115 -0.924522 -0.380932 -0 -0.908578 -0.417715 -0 -0.899651 -0.43661 